common_name,chemspider id,pubchem id,IUPAC name,molecular_weight, C number,image,smiles,image_url,inchi,inchikey,elution time,pka1,pka2,pKa Temperature (K),pKa Reference,solubility (g/Kg H2O),Solubility Temperature (K),Solubility Reference,k0 Protonated Reference Rate Constant  (M^-1*s^-1),Ea Protonated activation energy (kj/mol),Protonated Refence Temperature,Protonated Refence,k0 Monoanion Reference Rate Constant (M^-1*s^-1),Ea monoanion activation energy (kj/mol),Monoanion Refence Temperature,Monoanion Reference,Dianion Reference Rate Constant k0 (M^-1*s^-1),Ea dianion Activation Energy (kj/mol),Dianion Rate Constant Temperature,Dianion rate Constant Reference
Sebacic acid,5004,5192,decanedioic acid,202.2475,10,![|200](http://www.chemspider.com/ImagesHandler.ashx?id=5004),C(CCCCC(=O)O)CCCC(=O)O,http://www.chemspider.com/ImagesHandler.ashx?id=5004,"InChI=1S/C10H18O4/c11-9(12)7-5-3-1-2-4-6-8-10(13)14/h1-8H2,(H,11,12)(H,13,14)",CXMXRPHRNRROMY-UHFFFAOYSA-N,,4.59,5.59,298,"Lide, D. R. (2009). CRC Handbook of Chemistry and Physics, 90th Edition (90th ed.). Taylor & Francis.",0.24,298,"Zhang, H., Xie, C., Liu, Z., Gong, J., Bao, Y., Zhang, M., Hao, H., Hou, B., & Yin, Q. (2013). Identification and Molecular Understanding of the Odd–Even Effect of Dicarboxylic Acids Aqueous Solubility. Industrial & Engineering Chemistry Research, 52(51), 18458–18465. https://doi.org/10.1021/ie4030845",5.27E+09,17,298,"Witkowski, B., Chi, J., Jain, P., Błaziak, K., & Gierczak, T. (2021). Aqueous OH kinetics of saturated C6–C10 dicarboxylic acids under acidic and basic conditions between 283 and 318 K; new structure-activity relationship parameters. Atmospheric Environment, 267, 118761. https://doi.org/10.1016/j.atmosenv.2021.118763",5.66E+09,11,298,"Witkowski, B., Chi, J., Jain, P., Błaziak, K., & Gierczak, T. (2021). Aqueous OH kinetics of saturated C6–C10 dicarboxylic acids under acidic and basic conditions between 283 and 318 K; new structure-activity relationship parameters. Atmospheric Environment, 267, 118761. https://doi.org/10.1016/j.atmosenv.2021.118763",5.35E+09,15.4,298,"Witkowski, B., Chi, J., Jain, P., Błaziak, K., & Gierczak, T. (2021). Aqueous OH kinetics of saturated C6–C10 dicarboxylic acids under acidic and basic conditions between 283 and 318 K; new structure-activity relationship parameters. Atmospheric Environment, 267, 118761. https://doi.org/10.1016/j.atmosenv.2021.118765"
Undecanedioic acid,15037,15816,Undecanedioic acid,216.2741,11,![|200](http://www.chemspider.com/ImagesHandler.ashx?id=15037),C(CCCCC(=O)O)CCCCC(=O)O,http://www.chemspider.com/ImagesHandler.ashx?id=15037,"InChI=1S/C11H20O4/c12-10(13)8-6-4-2-1-3-5-7-9-11(14)15/h1-9H2,(H,12,13)(H,14,15)",LWBHHRRTOZQPDM-UHFFFAOYSA-N,,,,,,,,,,,,,,,,,,,,
Dodecanedioic acid,12213,12736,Dodecanedioic acid,230.3007,12,![|200](http://www.chemspider.com/ImagesHandler.ashx?id=12213),C(CCCCCC(=O)O)CCCCC(=O)O,http://www.chemspider.com/ImagesHandler.ashx?id=12213,"InChI=1S/C12H22O4/c13-11(14)9-7-5-3-1-2-4-6-8-10-12(15)16/h1-10H2,(H,13,14)(H,15,16)",TVIDDXQYHWJXFK-UHFFFAOYSA-N,,,,,,,,,,,,,,,,,,,,